         Total DFT energy =     -231.610586024990
@ Step       Energy      Delta E   Gmax     Grms     Xrms     Xmax   Walltime
@ ---- ---------------- -------- -------- -------- -------- -------- --------
@    0    -231.61058602  0.0D+00  0.01562  0.00444  0.00000  0.00000      8.7
         Total DFT energy =     -231.614268257150
         Total DFT energy =     -231.614328354793
@    1    -231.61432835 -3.7D-03  0.00811  0.00105  0.04470  0.13808     18.1
         Total DFT energy =     -231.614447223126
         Total DFT energy =     -231.614450839310
@    2    -231.61445084 -1.2D-04  0.00115  0.00021  0.00775  0.03672     27.0
         Total DFT energy =     -231.614469080919
         Total DFT energy =     -231.614471799669
@    3    -231.61447180 -2.1D-05  0.00120  0.00018  0.01045  0.03144     35.0
         Total DFT energy =     -231.614478697936
         Total DFT energy =     -231.614478903653
@    4    -231.61447890 -7.1D-06  0.00019  0.00004  0.00278  0.00831     42.9
         Total DFT energy =     -231.614480053460
         Total DFT energy =   -231.614480053460
@    5    -231.61448005 -1.1D-06  0.00013  0.00003  0.00124  0.00319     48.2
         Total DFT energy =     -231.614481261987
         Total DFT energy =   -231.614481261987
@    6    -231.61448126 -1.2D-06  0.00012  0.00003  0.00228  0.00477     53.5
         Total DFT energy =     -231.614481688816
         Total DFT energy =   -231.614481688816
@    7    -231.61448169 -4.3D-07  0.00004  0.00001  0.00132  0.00270     58.8
         Total DFT energy =     -231.614482537636
         Total DFT energy =   -231.614482537636
@    8    -231.61448254 -8.5D-07  0.00004  0.00002  0.00214  0.00441     64.0
         Total DFT energy =     -231.614484131573
         Total DFT energy =   -231.614484131573
@    9    -231.61448413 -1.6D-06  0.00013  0.00003  0.00346  0.00764     69.3
         Total DFT energy =     -231.614486787426
         Total DFT energy =   -231.614486787426
@   10    -231.61448679 -2.7D-06  0.00014  0.00004  0.00476  0.01114     74.6
         Total DFT energy =     -231.614490329991
         Total DFT energy =   -231.614490329991
@   11    -231.61449033 -3.5D-06  0.00012  0.00003  0.00562  0.01342     79.8
         Total DFT energy =     -231.614492997132
         Total DFT energy =   -231.614492997132
@   12    -231.61449300 -2.7D-06  0.00006  0.00002  0.00361  0.00863     85.1
         Total DFT energy =     -231.614494536463

 Vector   42  Occ=0.000000D+00  E= 4.899677D-01

 Vector   43  Occ=0.000000D+00  E= 5.086838D-01

         Total DFT energy =   -231.614494536463
@   13    -231.61449454 -1.5D-06  0.00006  0.00001  0.00134  0.00275     90.3
         Total DFT energy =     -231.614495023010

 Vector    5  Occ=2.000000D+00  E=-9.784474D+00

 Vector    6  Occ=2.000000D+00  E=-9.229443D-01

 Vector    7  Occ=2.000000D+00  E=-7.193700D-01

 Vector    8  Occ=2.000000D+00  E=-6.425948D-01

 Vector    9  Occ=2.000000D+00  E=-5.602784D-01

 Vector   10  Occ=2.000000D+00  E=-5.193806D-01

 Vector   11  Occ=2.000000D+00  E=-4.513043D-01

 Vector   12  Occ=2.000000D+00  E=-4.185611D-01

 Vector   13  Occ=2.000000D+00  E=-3.933327D-01

 Vector   14  Occ=2.000000D+00  E=-3.788718D-01

 Vector   15  Occ=2.000000D+00  E=-3.410986D-01

 Vector   16  Occ=2.000000D+00  E=-3.334046D-01

 Vector   17  Occ=2.000000D+00  E=-3.158726D-01

 Vector   18  Occ=2.000000D+00  E=-2.952749D-01

 Vector   19  Occ=2.000000D+00  E=-2.800392D-01

 Vector   20  Occ=2.000000D+00  E=-2.668826D-01

 Vector   21  Occ=2.000000D+00  E=-2.135128D-01

 Vector   22  Occ=0.000000D+00  E= 2.438039D-02

 Vector   23  Occ=0.000000D+00  E= 3.317741D-02

 Vector   24  Occ=0.000000D+00  E= 5.726678D-02

 Vector   25  Occ=0.000000D+00  E= 6.099100D-02

 Vector   26  Occ=0.000000D+00  E= 7.955925D-02

 Vector   27  Occ=0.000000D+00  E= 1.047032D-01

 Vector   28  Occ=0.000000D+00  E= 1.170355D-01

 Vector   29  Occ=0.000000D+00  E= 1.251676D-01

 Vector   30  Occ=0.000000D+00  E= 1.279697D-01

 Vector   31  Occ=0.000000D+00  E= 1.372064D-01

 Vector   32  Occ=0.000000D+00  E= 1.616486D-01

 Vector   33  Occ=0.000000D+00  E= 1.940216D-01

 Vector   34  Occ=0.000000D+00  E= 2.102307D-01

 Vector   35  Occ=0.000000D+00  E= 2.192690D-01

 Vector   36  Occ=0.000000D+00  E= 3.644488D-01

 Vector   37  Occ=0.000000D+00  E= 3.742267D-01

 Vector   38  Occ=0.000000D+00  E= 3.906429D-01

 Vector   39  Occ=0.000000D+00  E= 3.943281D-01

 Vector   40  Occ=0.000000D+00  E= 4.088843D-01

 Vector   41  Occ=0.000000D+00  E= 4.707198D-01

 Vector   42  Occ=0.000000D+00  E= 4.899745D-01

 Vector   43  Occ=0.000000D+00  E= 5.086869D-01

         Total DFT energy =   -231.614495023010
@   14    -231.61449502 -4.9D-07  0.00004  0.00001  0.00045  0.00095     95.2
@   14    -231.61449502 -4.9D-07  0.00004  0.00001  0.00045  0.00095     95.2

 Output coordinates in angstroms (scale by  1.889725989 to convert to a.u.)

  No.       Tag          Charge          X              Y              Z
 ---- ---------------- ---------- -------------- -------------- --------------
    1 C                    6.0000    -0.50069036     1.31693749     0.03732442
    2 C                    6.0000     0.32650991     0.04980124    -0.04086468
    3 C                    6.0000    -0.51084626    -1.21564072    -0.00682978
    4 C                    6.0000     0.32194439    -2.48276435    -0.00175881
    5 O                    8.0000     0.26229404     2.49213510    -0.07341707
    6 H                    1.0000    -1.11932059     1.29652620     0.97658133
    7 H                    1.0000    -1.22708398     1.34386008    -0.80842496
    8 H                    1.0000     1.05337512     0.04151013     0.81187222
    9 H                    1.0000     0.94329850     0.08653910    -0.96993085
   10 H                    1.0000    -1.19966643    -1.21893840    -0.88554261
   11 H                    1.0000    -1.17418066    -1.19537930     0.89126231
   12 H                    1.0000     0.99020644    -2.53193924    -0.88967334
   13 H                    1.0000    -0.30941005    -3.39568542    -0.00924289
   14 H                    1.0000     0.97351352    -2.53613080     0.89844428
   15 H                    1.0000     0.92568930     2.46552006     0.64431258

         Total DFT energy =     -231.621464065885

                       DFT Final Molecular Orbital Analysis
                       ------------------------------------

 Vector    5  Occ=2.000000D+00  E=-9.784815D+00

 Vector    6  Occ=2.000000D+00  E=-9.227821D-01

 Vector    7  Occ=2.000000D+00  E=-7.194265D-01

 Vector    8  Occ=2.000000D+00  E=-6.426294D-01

 Vector    9  Occ=2.000000D+00  E=-5.602401D-01

 Vector   10  Occ=2.000000D+00  E=-5.194317D-01

 Vector   11  Occ=2.000000D+00  E=-4.512611D-01

 Vector   12  Occ=2.000000D+00  E=-4.185753D-01

 Vector   13  Occ=2.000000D+00  E=-3.933469D-01

 Vector   14  Occ=2.000000D+00  E=-3.789032D-01

 Vector   15  Occ=2.000000D+00  E=-3.411418D-01

 Vector   16  Occ=2.000000D+00  E=-3.333624D-01

 Vector   17  Occ=2.000000D+00  E=-3.158866D-01

 Vector   18  Occ=2.000000D+00  E=-2.953028D-01

 Vector   19  Occ=2.000000D+00  E=-2.800307D-01

 Vector   20  Occ=2.000000D+00  E=-2.668519D-01

 Vector   21  Occ=2.000000D+00  E=-2.134604D-01

 Vector   22  Occ=0.000000D+00  E= 2.443190D-02

 Vector   23  Occ=0.000000D+00  E= 3.316400D-02

 Vector   24  Occ=0.000000D+00  E= 5.715629D-02

 Vector   25  Occ=0.000000D+00  E= 6.091351D-02

 Vector   26  Occ=0.000000D+00  E= 7.957807D-02

 Vector   27  Occ=0.000000D+00  E= 1.047079D-01

 Vector   28  Occ=0.000000D+00  E= 1.169563D-01

 Vector   29  Occ=0.000000D+00  E= 1.251266D-01

 Vector   30  Occ=0.000000D+00  E= 1.278710D-01

 Vector   31  Occ=0.000000D+00  E= 1.370900D-01

 Vector   32  Occ=0.000000D+00  E= 1.617297D-01

 Vector   33  Occ=0.000000D+00  E= 1.942504D-01

 Vector   34  Occ=0.000000D+00  E= 2.104174D-01

 Vector   35  Occ=0.000000D+00  E= 2.194913D-01

 Vector   36  Occ=0.000000D+00  E= 3.643904D-01

 Vector   37  Occ=0.000000D+00  E= 3.741078D-01

 Vector   38  Occ=0.000000D+00  E= 3.905745D-01

 Vector   39  Occ=0.000000D+00  E= 3.943723D-01

 Vector   40  Occ=0.000000D+00  E= 4.088943D-01

 Vector   41  Occ=0.000000D+00  E= 4.708013D-01

 Vector   42  Occ=0.000000D+00  E= 4.899623D-01

 Vector   43  Occ=0.000000D+00  E= 5.089178D-01

     Multipole analysis of the density
     ---------------------------------

     L   x y z        total         alpha         beta         nuclear
     -   - - -        -----         -----         ----         -------
     0   0 0 0     -0.000000    -21.000000    -21.000000     42.000000

     1   1 0 0      0.140767      0.281769      0.281769     -0.422770
     1   0 1 0     -0.423024     -0.497773     -0.497773      0.572521
     1   0 0 1      0.390238      0.195546      0.195546     -0.000853

     2   2 0 0    -24.046802    -39.411058    -39.411058     54.775315
     2   1 1 0      1.216267      3.199458      3.199458     -5.182650
     2   1 0 1      1.069167      0.321570      0.321570      0.426028
     2   0 2 0    -28.061199   -269.042394   -269.042394    510.023590
     2   0 1 1      2.158754     -0.050021     -0.050021      2.258795

 Zero-Point correction to Energy  =   82.706 kcal/mol  (  0.131801 au)
 Thermal correction to Energy     =   86.999 kcal/mol  (  0.138642 au)
 Thermal correction to Enthalpy   =   87.587 kcal/mol  (  0.139579 au)
 Total Entropy                    =   79.646 cal/mol-K
   - Translational                =   38.770 cal/mol-K (mol. weight =  74.0732)
   - Rotational                   =   25.914 cal/mol-K (symmetry #  =        1)
   - Vibrational                  =   14.962 cal/mol-K
   - Translational                  =    2.979 cal/mol-K
   - Rotational                     =    2.979 cal/mol-K
   - Vibrational                    =   17.840 cal/mol-K
 P.Frequency       -0.00        0.00        0.00        0.00        0.00        0.00
 P.Frequency      116.02      128.54      171.08      250.07      296.10      380.81
 P.Frequency      438.22      725.46      771.27      884.14      895.44     1006.30
 P.Frequency     1055.00     1072.20     1101.71     1118.41     1164.39     1197.36
 P.Frequency     1237.74     1245.16     1297.15     1324.97     1336.73     1350.70
 P.Frequency     1383.92     1390.02     1392.62     1403.96     1417.68     2846.79
 P.Frequency     2903.98     2932.59     2956.54     2961.80     2970.15     2987.71
 P.Frequency     3037.16     3052.00     3679.45

 Normal Eigenvalue ||           Projected Infra Red Intensities
  Mode   [cm**-1]  || [atomic units] [(debye/angs)**2] [(KM/mol)] [arbitrary]
 ------ ---------- || -------------- ----------------- ---------- -----------
    1       -0.000 ||    0.000008           0.000         0.007       0.005
    2        0.000 ||    0.000158           0.004         0.154       0.104
    3        0.000 ||    0.000085           0.002         0.083       0.056
    4        0.000 ||    0.000068           0.002         0.067       0.045
    5        0.000 ||    0.000906           0.021         0.883       0.594
    6        0.000 ||    0.001102           0.025         1.075       0.723
    7      116.021 ||    0.004709           0.109         4.590       3.090
    8      128.537 ||    0.002265           0.052         2.208       1.486
    9      171.082 ||    0.002452           0.057         2.391       1.609
   10      250.067 ||    0.000370           0.009         0.361       0.243
   11      296.103 ||    0.109344           2.523       106.594      71.749
   12      380.813 ||    0.001720           0.040         1.677       1.129
   13      438.223 ||    0.015968           0.368        15.566      10.477
   14      725.460 ||    0.006859           0.158         6.687       4.501
   15      771.267 ||    0.000835           0.019         0.814       0.548
   16      884.138 ||    0.002681           0.062         2.614       1.759
   17      895.445 ||    0.003261           0.075         3.179       2.140
   18     1006.304 ||    0.033124           0.764        32.291      21.735
   19     1054.999 ||    0.037098           0.856        36.165      24.342
   20     1072.196 ||    0.019726           0.455        19.230      12.943
   21     1101.713 ||    0.025889           0.597        25.238      16.988
   22     1118.415 ||    0.029111           0.672        28.379      19.102
   23     1164.395 ||    0.001213           0.028         1.183       0.796
   24     1197.355 ||    0.002483           0.057         2.420       1.629
   25     1237.741 ||    0.006162           0.142         6.007       4.043
   26     1245.155 ||    0.000360           0.008         0.350       0.236
   27     1297.155 ||    0.000033           0.001         0.032       0.021
   28     1324.967 ||    0.004825           0.111         4.703       3.166
   29     1336.727 ||    0.002795           0.064         2.725       1.834
   30     1350.697 ||    0.060035           1.385        58.525      39.394
   31     1383.924 ||    0.000193           0.004         0.188       0.126
   32     1390.020 ||    0.000960           0.022         0.936       0.630
   33     1392.620 ||    0.010288           0.237        10.029       6.751
   34     1403.956 ||    0.005590           0.129         5.449       3.668
   35     1417.684 ||    0.002245           0.052         2.188       1.473
   36     2846.791 ||    0.074356           1.715        72.486      48.791
   37     2903.977 ||    0.021548           0.497        21.006      14.140
   38     2932.592 ||    0.030178           0.696        29.419      19.802
   39     2956.544 ||    0.025152           0.580        24.519      16.504
   40     2961.801 ||    0.015435           0.356        15.047      10.128
   41     2970.148 ||    0.007549           0.174         7.360       4.954
   42     2987.714 ||    0.053323           1.230        51.982      34.989
   43     3037.157 ||    0.027052           0.624        26.372      17.751
   44     3051.996 ||    0.020658           0.477        20.139      13.555
   45     3679.452 ||    0.015621           0.360        15.228      10.250
 ----------------------------------------------------------------------------

 Total times  cpu:      246.3s     wall:      252.1s
